TITLE     = "fluent14.5.0  build-id: 10329"
VARIABLES = "X"
"Y"
"Z"
"Temperature"
DATASETAUXDATA Common.DensityVar="48"
DATASETAUXDATA Common.PressureVar="50"
DATASETAUXDATA Common.TemperatureVar="4"
DATASETAUXDATA Common.UVar="51"
DATASETAUXDATA Common.VectorVarsAreVelocity="TRUE"
DATASETAUXDATA Common.ViscosityVar="62"
DATASETAUXDATA Common.VVar="53"
DATASETAUXDATA Common.WVar="55"
ZONE T="Rectangular zone"
 STRANDID=0, SOLUTIONTIME=0
 I=145, J=110, K=3, ZONETYPE=Ordered
 DATAPACKING=POINT
 DT=(SINGLE SINGLE SINGLE SINGLE )
 -7.249999791E-002 -5.499999970E-002 -1.500000013E-003 3.045759888E+002
 -7.149305195E-002 -5.499999970E-002 -1.500000013E-003 3.045819092E+002
 -7.048611343E-002 -5.499999970E-002 -1.500000013E-003 3.046643372E+002
 -6.947916746E-002 -5.499999970E-002 -1.500000013E-003 3.050921326E+002
 -6.847222149E-002 -5.499999970E-002 -1.500000013E-003 3.062753296E+002
 -6.746527553E-002 -5.499999970E-002 -1.500000013E-003 3.078039246E+002
 -6.645833701E-002 -5.499999970E-002 -1.500000013E-003 3.086500244E+002
 -6.545139104E-002 -5.499999970E-002 -1.500000013E-003 3.088827820E+002
 -6.444444507E-002 -5.499999970E-002 -1.500000013E-003 3.089144592E+002
 -6.343749911E-002 -5.499999970E-002 -1.500000013E-003 3.089156799E+002
 -6.243055686E-002 -5.499999970E-002 -1.500000013E-003 3.089846497E+002
 -6.142361090E-002 -5.499999970E-002 -1.500000013E-003 3.096555176E+002
 -6.041666493E-002 -5.499999970E-002 -1.500000013E-003 3.122207947E+002
 -5.940972269E-002 -5.499999970E-002 -1.500000013E-003 3.155119629E+002
 -5.840277672E-002 -5.499999970E-002 -1.500000013E-003 3.167890320E+002
 -5.739583448E-002 -5.499999970E-002 -1.500000013E-003 3.169819946E+002
 -5.638888851E-002 -5.499999970E-002 -1.500000013E-003 3.169883728E+002
 -5.538194627E-002 -5.499999970E-002 -1.500000013E-003 3.170565491E+002
 -5.437500030E-002 -5.499999970E-002 -1.500000013E-003 3.179706726E+002
 -5.336805433E-002 -5.499999970E-002 -1.500000013E-003 3.212592163E+002
 -5.236111209E-002 -5.499999970E-002 -1.500000013E-003 3.235239258E+002
 -5.135416612E-002 -5.499999970E-002 -1.500000013E-003 3.238676453E+002
 -5.034722388E-002 -5.499999970E-002 -1.500000013E-003 3.238775024E+002
 -4.934027791E-002 -5.499999970E-002 -1.500000013E-003 3.240033264E+002
 -4.833333194E-002 -5.499999970E-002 -1.500000013E-003 3.257447815E+002
 -4.732638970E-002 -5.499999970E-002 -1.500000013E-003 3.289939270E+002
 -4.631944373E-002 -5.499999970E-002 -1.500000013E-003 3.296302490E+002
 -4.531250149E-002 -5.499999970E-002 -1.500000013E-003 3.296460876E+002
 -4.430555552E-002 -5.499999970E-002 -1.500000013E-003 3.298848267E+002
 -4.329860955E-002 -5.499999970E-002 -1.500000013E-003 3.326244507E+002
 -4.229166731E-002 -5.499999970E-002 -1.500000013E-003 3.343299561E+002
 -4.128472134E-002 -5.499999970E-002 -1.500000013E-003 3.343887939E+002
 -4.027777910E-002 -5.499999970E-002 -1.500000013E-003 3.346285400E+002
 -3.927083313E-002 -5.499999970E-002 -1.500000013E-003 3.374762268E+002
 -3.826388717E-002 -5.499999970E-002 -1.500000013E-003 3.382330627E+002
 -3.725694492E-002 -5.499999970E-002 -1.500000013E-003 3.382716675E+002
 -3.624999896E-002 -5.499999970E-002 -1.500000013E-003 3.403757324E+002
 -3.524305671E-002 -5.499999970E-002 -1.500000013E-003 3.413134460E+002
 -3.423611075E-002 -5.499999970E-002 -1.500000013E-003 3.414482422E+002
 -3.322916850E-002 -5.499999970E-002 -1.500000013E-003 3.436694336E+002
 -3.222222254E-002 -5.499999970E-002 -1.500000013E-003 3.437708130E+002
 -3.121527843E-002 -5.499999970E-002 -1.500000013E-003 3.455195618E+002
 -3.020833246E-002 -5.499999970E-002 -1.500000013E-003 3.457132568E+002
 -2.920138836E-002 -5.499999970E-002 -1.500000013E-003 3.472154846E+002
 -2.819444425E-002 -5.499999970E-002 -1.500000013E-003 3.476991882E+002
 -2.718750015E-002 -5.499999970E-002 -1.500000013E-003 3.484603882E+002
 -2.618055604E-002 -5.499999970E-002 -1.500000013E-003 3.494043884E+002
 -2.517361194E-002 -5.499999970E-002 -1.500000013E-003 3.501725464E+002
 -2.416666597E-002 -5.499999970E-002 -1.500000013E-003 3.510004578E+002
 -2.315972187E-002 -5.499999970E-002 -1.500000013E-003 3.516693726E+002
 -2.215277776E-002 -5.499999970E-002 -1.500000013E-003 3.524487305E+002
 -2.114583366E-002 -5.499999970E-002 -1.500000013E-003 3.529841309E+002
 -2.013888955E-002 -5.499999970E-002 -1.500000013E-003 3.536472473E+002
 -1.913194358E-002 -5.499999970E-002 -1.500000013E-003 3.542038879E+002
 -1.812499948E-002 -5.499999970E-002 -1.500000013E-003 3.546614990E+002
 -1.711805537E-002 -5.499999970E-002 -1.500000013E-003 3.550708923E+002
 -1.611111127E-002 -5.499999970E-002 -1.500000013E-003 3.554441833E+002
 -1.510416623E-002 -5.499999970E-002 -1.500000013E-003 3.558018494E+002
 -1.409722213E-002 -5.499999970E-002 -1.500000013E-003 3.561435547E+002
 -1.309027802E-002 -5.499999970E-002 -1.500000013E-003 3.563991699E+002
 -1.208333299E-002 -5.499999970E-002 -1.500000013E-003 3.565819092E+002
 -1.107638888E-002 -5.499999970E-002 -1.500000013E-003 3.567189026E+002
 -1.006944478E-002 -5.499999970E-002 -1.500000013E-003 3.568147888E+002
 -9.062499739E-003 -5.499999970E-002 -1.500000013E-003 3.568699951E+002
 -8.055555634E-003 -5.499999970E-002 -1.500000013E-003 3.568697510E+002
 -7.048611064E-003 -5.499999970E-002 -1.500000013E-003 3.568118896E+002
 -6.041666493E-003 -5.499999970E-002 -1.500000013E-003 3.567141418E+002
 -5.034722388E-003 -5.499999970E-002 -1.500000013E-003 3.565783386E+002
 -4.027777817E-003 -5.499999970E-002 -1.500000013E-003 3.564015198E+002
 -3.020833246E-003 -5.499999970E-002 -1.500000013E-003 3.561626282E+002
 -2.013888909E-003 -5.499999970E-002 -1.500000013E-003 3.558474426E+002
 -1.006944454E-003 -5.499999970E-002 -1.500000013E-003 3.555260315E+002
 0.000000000E+000 -5.499999970E-002 -1.500000013E-003 3.552175598E+002
 1.006944454E-003 -5.499999970E-002 -1.500000013E-003 3.548118591E+002
 2.013888909E-003 -5.499999970E-002 -1.500000013E-003 3.542710571E+002
 3.020833246E-003 -5.499999970E-002 -1.500000013E-003 3.536112366E+002
 4.027777817E-003 -5.499999970E-002 -1.500000013E-003 3.534988098E+002
 5.034722388E-003 -5.499999970E-002 -1.500000013E-003 3.526001587E+002
 6.041666493E-003 -5.499999970E-002 -1.500000013E-003 3.523842163E+002
 7.048611064E-003 -5.499999970E-002 -1.500000013E-003 3.513333435E+002
 8.055555634E-003 -5.499999970E-002 -1.500000013E-003 3.512579041E+002
 9.062499739E-003 -5.499999970E-002 -1.500000013E-003 3.497564392E+002
 1.006944478E-002 -5.499999970E-002 -1.500000013E-003 3.496556702E+002
 1.107638888E-002 -5.499999970E-002 -1.500000013E-003 3.491671753E+002
 1.208333299E-002 -5.499999970E-002 -1.500000013E-003 3.475283508E+002
 1.309027802E-002 -5.499999970E-002 -1.500000013E-003 3.474722900E+002
 1.409722213E-002 -5.499999970E-002 -1.500000013E-003 3.472010498E+002
 1.510416623E-002 -5.499999970E-002 -1.500000013E-003 3.450989685E+002
 1.611111127E-002 -5.499999970E-002 -1.500000013E-003 3.446759644E+002
 1.711805537E-002 -5.499999970E-002 -1.500000013E-003 3.446662292E+002
 1.812499948E-002 -5.499999970E-002 -1.500000013E-003 3.441173401E+002
 1.913194358E-002 -5.499999970E-002 -1.500000013E-003 3.417737732E+002
 2.013888955E-002 -5.499999970E-002 -1.500000013E-003 3.411856384E+002
 2.114583366E-002 -5.499999970E-002 -1.500000013E-003 3.411734314E+002
 2.215277776E-002 -5.499999970E-002 -1.500000013E-003 3.410651550E+002
 2.315972187E-002 -5.499999970E-002 -1.500000013E-003 3.397462463E+002
 2.416666597E-002 -5.499999970E-002 -1.500000013E-003 3.374490356E+002
 2.517361194E-002 -5.499999970E-002 -1.500000013E-003 3.369647217E+002
 2.618055604E-002 -5.499999970E-002 -1.500000013E-003 3.369456787E+002
 2.718750015E-002 -5.499999970E-002 -1.500000013E-003 3.369159851E+002
 2.819444425E-002 -5.499999970E-002 -1.500000013E-003 3.364291077E+002
 2.920138836E-002 -5.499999970E-002 -1.500000013E-003 3.343801270E+002
 3.020833246E-002 -5.499999970E-002 -1.500000013E-003 3.325072021E+002
 3.121527843E-002 -5.499999970E-002 -1.500000013E-003 3.321100769E+002
 3.222222254E-002 -5.499999970E-002 -1.500000013E-003 3.320831299E+002
 3.322916850E-002 -5.499999970E-002 -1.500000013E-003 3.320789490E+002
 3.423611075E-002 -5.499999970E-002 -1.500000013E-003 3.319293213E+002
 3.524305671E-002 -5.499999970E-002 -1.500000013E-003 3.310537415E+002
 3.624999896E-002 -5.499999970E-002 -1.500000013E-003 3.289746704E+002
 3.725694492E-002 -5.499999970E-002 -1.500000013E-003 3.273717957E+002
 3.826388717E-002 -5.499999970E-002 -1.500000013E-003 3.269208984E+002
 3.927083313E-002 -5.499999970E-002 -1.500000013E-003 3.268666992E+002
 4.027777910E-002 -5.499999970E-002 -1.500000013E-003 3.268656006E+002
 4.128472134E-002 -5.499999970E-002 -1.500000013E-003 3.268427734E+002
 4.229166731E-002 -5.499999970E-002 -1.500000013E-003 3.266522827E+002
 4.329860955E-002 -5.499999970E-002 -1.500000013E-003 3.258964233E+002
 4.430555552E-002 -5.499999970E-002 -1.500000013E-003 3.243010864E+002
 4.531250149E-002 -5.499999970E-002 -1.500000013E-003 3.227439575E+002
 4.631944373E-002 -5.499999970E-002 -1.500000013E-003 3.220248413E+002
 4.732638970E-002 -5.499999970E-002 -1.500000013E-003 3.218408508E+002
 4.833333194E-002 -5.499999970E-002 -1.500000013E-003 3.218179016E+002
 4.934027791E-002 -5.499999970E-002 -1.500000013E-003 3.218176575E+002
 5.034722388E-002 -5.499999970E-002 -1.500000013E-003 3.218078003E+002
 5.135416612E-002 -5.499999970E-002 -1.500000013E-003 3.217326355E+002
 5.236111209E-002 -5.499999970E-002 -1.500000013E-003 3.214421997E+002
 5.336805433E-002 -5.499999970E-002 -1.500000013E-003 3.207207031E+002
 5.437500030E-002 -5.499999970E-002 -1.500000013E-003 3.196034851E+002
 5.538194627E-002 -5.499999970E-002 -1.500000013E-003 3.185986938E+002
 5.638888851E-002 -5.499999970E-002 -1.500000013E-003 3.180538635E+002
 5.739583448E-002 -5.499999970E-002 -1.500000013E-003 3.178573914E+002
 5.840277672E-002 -5.499999970E-002 -1.500000013E-003 3.178115540E+002
 5.940972269E-002 -5.499999970E-002 -1.500000013E-003 3.178056946E+002
 6.041666493E-002 -5.499999970E-002 -1.500000013E-003 3.178071899E+002
 6.142361090E-002 -5.499999970E-002 -1.500000013E-003 3.178054810E+002
 6.243055686E-002 -5.499999970E-002 -1.500000013E-003 3.177899475E+002
 6.343749911E-002 -5.499999970E-002 -1.500000013E-003 3.177280884E+002
 6.444444507E-002 -5.499999970E-002 -1.500000013E-003 3.175672302E+002
 6.545139104E-002 -5.499999970E-002 -1.500000013E-003 3.172700500E+002
 6.645833701E-002 -5.499999970E-002 -1.500000013E-003 3.168879700E+002
 6.746527553E-002 -5.499999970E-002 -1.500000013E-003 3.165527649E+002
 6.847222149E-002 -5.499999970E-002 -1.500000013E-003 3.163428345E+002
 6.947916746E-002 -5.499999970E-002 -1.500000013E-003 3.162416077E+002
 7.048611343E-002 -5.499999970E-002 -1.500000013E-003 3.162034607E+002
 7.149305195E-002 -5.499999970E-002 -1.500000013E-003 3.161937561E+002
 7.249999791E-002 -5.499999970E-002 -1.500000013E-003 3.161910400E+002
 -7.249999791E-002 -5.399082601E-002 -1.500000013E-003 3.045806580E+002
 -7.149305195E-002 -5.399082601E-002 -1.500000013E-003 3.045957336E+002
 -7.048611343E-002 -5.399082601E-002 -1.500000013E-003 3.047098389E+002
 -6.947916746E-002 -5.399082601E-002 -1.500000013E-003 3.051788635E+002
 -6.847222149E-002 -5.399082601E-002 -1.500000013E-003 3.063219910E+002
 -6.746527553E-002 -5.399082601E-002 -1.500000013E-003 3.077473755E+002
 -6.645833701E-002 -5.399082601E-002 -1.500000013E-003 3.085911865E+002
 -6.545139104E-002 -5.399082601E-002 -1.500000013E-003 3.088591309E+002
 -6.444444507E-002 -5.399082601E-002 -1.500000013E-003 3.089085693E+002
 -6.343749911E-002 -5.399082601E-002 -1.500000013E-003 3.089346008E+002
 -6.243055686E-002 -5.399082601E-002 -1.500000013E-003 3.090633240E+002
 -6.142361090E-002 -5.399082601E-002 -1.500000013E-003 3.098550110E+002
 -6.041666493E-002 -5.399082601E-002 -1.500000013E-003 3.123136902E+002
 -5.940972269E-002 -5.399082601E-002 -1.500000013E-003 3.153349609E+002
 -5.840277672E-002 -5.399082601E-002 -1.500000013E-003 3.166792297E+002
 -5.739583448E-002 -5.399082601E-002 -1.500000013E-003 3.169530029E+002
 -5.638888851E-002 -5.399082601E-002 -1.500000013E-003 3.170127258E+002
 -5.538194627E-002 -5.399082601E-002 -1.500000013E-003 3.171573792E+002
 -5.437500030E-002 -5.399082601E-002 -1.500000013E-003 3.182118530E+002
 -5.336805433E-002 -5.399082601E-002 -1.500000013E-003 3.211882935E+002
 -5.236111209E-002 -5.399082601E-002 -1.500000013E-003 3.233587341E+002
 -5.135416612E-002 -5.399082601E-002 -1.500000013E-003 3.238233337E+002
 -5.034722388E-002 -5.399082601E-002 -1.500000013E-003 3.239140015E+002
 -4.934027791E-002 -5.399082601E-002 -1.500000013E-003 3.241638184E+002
 -4.833333194E-002 -5.399082601E-002 -1.500000013E-003 3.259276428E+002
 -4.732638970E-002 -5.399082601E-002 -1.500000013E-003 3.287768250E+002
 -4.631944373E-002 -5.399082601E-002 -1.500000013E-003 3.295626526E+002
 -4.531250149E-002 -5.399082601E-002 -1.500000013E-003 3.296992493E+002
 -4.430555552E-002 -5.399082601E-002 -1.500000013E-003 3.301230469E+002
 -4.329860955E-002 -5.399082601E-002 -1.500000013E-003 3.325341187E+002
 -4.229166731E-002 -5.399082601E-002 -1.500000013E-003 3.341941833E+002
 -4.128472134E-002 -5.399082601E-002 -1.500000013E-003 3.344526672E+002
 -4.027777910E-002 -5.399082601E-002 -1.500000013E-003 3.349027710E+002
 -3.927083313E-002 -5.399082601E-002 -1.500000013E-003 3.372411499E+002
 -3.826388717E-002 -5.399082601E-002 -1.500000013E-003 3.381553040E+002
 -3.725694492E-002 -5.399082601E-002 -1.500000013E-003 3.384706726E+002
 -3.624999896E-002 -5.399082601E-002 -1.500000013E-003 3.402085266E+002
 -3.524305671E-002 -5.399082601E-002 -1.500000013E-003 3.412229004E+002
 -3.423611075E-002 -5.399082601E-002 -1.500000013E-003 3.417539673E+002
 -3.322916850E-002 -5.399082601E-002 -1.500000013E-003 3.434054260E+002
 -3.222222254E-002 -5.399082601E-002 -1.500000013E-003 3.439805908E+002
 -3.121527843E-002 -5.399082601E-002 -1.500000013E-003 3.452235107E+002
 -3.020833246E-002 -5.399082601E-002 -1.500000013E-003 3.459665833E+002
 -2.920138836E-002 -5.399082601E-002 -1.500000013E-003 3.469710999E+002
 -2.819444425E-002 -5.399082601E-002 -1.500000013E-003 3.478047485E+002
 -2.718750015E-002 -5.399082601E-002 -1.500000013E-003 3.487317200E+002
 -2.618055604E-002 -5.399082601E-002 -1.500000013E-003 3.496312256E+002
 -2.517361194E-002 -5.399082601E-002 -1.500000013E-003 3.503968811E+002
 -2.416666597E-002 -5.399082601E-002 -1.500000013E-003 3.510353088E+002
 -2.315972187E-002 -5.399082601E-002 -1.500000013E-003 3.518218384E+002
 -2.215277776E-002 -5.399082601E-002 -1.500000013E-003 3.523676758E+002
 -2.114583366E-002 -5.399082601E-002 -1.500000013E-003 3.530691528E+002
 -2.013888955E-002 -5.399082601E-002 -1.500000013E-003 3.536123047E+002
 -1.913194358E-002 -5.399082601E-002 -1.500000013E-003 3.541166687E+002
 -1.812499948E-002 -5.399082601E-002 -1.500000013E-003 3.545809631E+002
 -1.711805537E-002 -5.399082601E-002 -1.500000013E-003 3.551668091E+002
 -1.611111127E-002 -5.399082601E-002 -1.500000013E-003 3.555310364E+002
 -1.510416623E-002 -5.399082601E-002 -1.500000013E-003 3.558532104E+002
 -1.409722213E-002 -5.399082601E-002 -1.500000013E-003 3.561325073E+002
 -1.309027802E-002 -5.399082601E-002 -1.500000013E-003 3.563683777E+002
 -1.208333299E-002 -5.399082601E-002 -1.500000013E-003 3.565604553E+002
 -1.107638888E-002 -5.399082601E-002 -1.500000013E-003 3.567566528E+002
 -1.006944478E-002 -5.399082601E-002 -1.500000013E-003 3.568423462E+002
 -9.062499739E-003 -5.399082601E-002 -1.500000013E-003 3.568844299E+002
 -8.055555634E-003 -5.399082601E-002 -1.500000013E-003 3.568830872E+002
 -7.048611064E-003 -5.399082601E-002 -1.500000013E-003 3.568387146E+002
 -6.041666493E-003 -5.399082601E-002 -1.500000013E-003 3.567519226E+002
 -5.034722388E-003 -5.399082601E-002 -1.500000013E-003 3.565578918E+002
 -4.027777817E-003 -5.399082601E-002 -1.500000013E-003 3.563708496E+002
 -3.020833246E-003 -5.399082601E-002 -1.500000013E-003 3.561467896E+002
 -2.013888909E-003 -5.399082601E-002 -1.500000013E-003 3.558636780E+002
 -1.006944454E-003 -5.399082601E-002 -1.500000013E-003 3.554511719E+002
 0.000000000E+000 -5.399082601E-002 -1.500000013E-003 3.551096497E+002
 1.006944454E-003 -5.399082601E-002 -1.500000013E-003 3.546993408E+002
 2.013888909E-003 -5.399082601E-002 -1.500000013E-003 3.543865051E+002
 3.020833246E-003 -5.399082601E-002 -1.500000013E-003 3.537899780E+002
 4.027777817E-003 -5.399082601E-002 -1.500000013E-003 3.533303833E+002
 5.034722388E-003 -5.399082601E-002 -1.500000013E-003 3.527259521E+002
 6.041666493E-003 -5.399082601E-002 -1.500000013E-003 3.522241821E+002
 7.048611064E-003 -5.399082601E-002 -1.500000013E-003 3.514539185E+002
 8.055555634E-003 -5.399082601E-002 -1.500000013E-003 3.510901489E+002
 9.062499739E-003 -5.399082601E-002 -1.500000013E-003 3.499634705E+002
 1.006944478E-002 -5.399082601E-002 -1.500000013E-003 3.496075439E+002
 1.107638888E-002 -5.399082601E-002 -1.500000013E-003 3.490222778E+002
 1.208333299E-002 -5.399082601E-002 -1.500000013E-003 3.476950989E+002
 1.309027802E-002 -5.399082601E-002 -1.500000013E-003 3.474382935E+002
 1.409722213E-002 -5.399082601E-002 -1.500000013E-003 3.470333557E+002
 1.510416623E-002 -5.399082601E-002 -1.500000013E-003 3.453143005E+002
 1.611111127E-002 -5.399082601E-002 -1.500000013E-003 3.447377014E+002
 1.711805537E-002 -5.399082601E-002 -1.500000013E-003 3.446154480E+002
 1.812499948E-002 -5.399082601E-002 -1.500000013E-003 3.439678650E+002
 1.913194358E-002 -5.399082601E-002 -1.500000013E-003 3.419807739E+002
 2.013888955E-002 -5.399082601E-002 -1.500000013E-003 3.412572021E+002
 2.114583366E-002 -5.399082601E-002 -1.500000013E-003 3.411554871E+002
 2.215277776E-002 -5.399082601E-002 -1.500000013E-003 3.409707031E+002
 2.315972187E-002 -5.399082601E-002 -1.500000013E-003 3.396884460E+002
 2.416666597E-002 -5.399082601E-002 -1.500000013E-003 3.376426697E+002
 2.517361194E-002 -5.399082601E-002 -1.500000013E-003 3.370275574E+002
 2.618055604E-002 -5.399082601E-002 -1.500000013E-003 3.369390564E+002
 2.718750015E-002 -5.399082601E-002 -1.500000013E-003 3.368716431E+002
 2.819444425E-002 -5.399082601E-002 -1.500000013E-003 3.363128052E+002
 2.920138836E-002 -5.399082601E-002 -1.500000013E-003 3.344403687E+002
 3.020833246E-002 -5.399082601E-002 -1.500000013E-003 3.326694641E+002
 3.121527843E-002 -5.399082601E-002 -1.500000013E-003 3.321640930E+002
 3.222222254E-002 -5.399082601E-002 -1.500000013E-003 3.321012573E+002
 3.322916850E-002 -5.399082601E-002 -1.500000013E-003 3.320614929E+002
 3.423611075E-002 -5.399082601E-002 -1.500000013E-003 3.318669434E+002
 3.524305671E-002 -5.399082601E-002 -1.500000013E-003 3.309695435E+002
 3.624999896E-002 -5.399082601E-002 -1.500000013E-003 3.290599060E+002
 3.725694492E-002 -5.399082601E-002 -1.500000013E-003 3.275102234E+002
 3.826388717E-002 -5.399082601E-002 -1.500000013E-003 3.269780579E+002
 3.927083313E-002 -5.399082601E-002 -1.500000013E-003 3.268812866E+002
 4.027777910E-002 -5.399082601E-002 -1.500000013E-003 3.268618774E+002
 4.128472134E-002 -5.399082601E-002 -1.500000013E-003 3.268256836E+002
 4.229166731E-002 -5.399082601E-002 -1.500000013E-003 3.266053467E+002
 4.329860955E-002 -5.399082601E-002 -1.500000013E-003 3.258390808E+002
 4.430555552E-002 -5.399082601E-002 -1.500000013E-003 3.243361511E+002
 4.531250149E-002 -5.399082601E-002 -1.500000013E-003 3.228541565E+002
 4.631944373E-002 -5.399082601E-002 -1.500000013E-003 3.220996399E+002
 4.732638970E-002 -5.399082601E-002 -1.500000013E-003 3.218686829E+002
 4.833333194E-002 -5.399082601E-002 -1.500000013E-003 3.218255615E+002
 4.934027791E-002 -5.399082601E-002 -1.500000013E-003 3.218165588E+002
 5.034722388E-002 -5.399082601E-002 -1.500000013E-003 3.218025208E+002
 5.135416612E-002 -5.399082601E-002 -1.500000013E-003 3.217175598E+002
 5.236111209E-002 -5.399082601E-002 -1.500000013E-003 3.214154663E+002
 5.336805433E-002 -5.399082601E-002 -1.500000013E-003 3.207055054E+002
 5.437500030E-002 -5.399082601E-002 -1.500000013E-003 3.196354370E+002
 5.538194627E-002 -5.399082601E-002 -1.500000013E-003 3.186623230E+002
 5.638888851E-002 -5.399082601E-002 -1.500000013E-003 3.181062012E+002
 5.739583448E-002 -5.399082601E-002 -1.500000013E-003 3.178840637E+002
 5.840277672E-002 -5.399082601E-002 -1.500000013E-003 3.178206787E+002
 5.940972269E-002 -5.399082601E-002 -1.500000013E-003 3.178099670E+002
 6.041666493E-002 -5.399082601E-002 -1.500000013E-003 3.178080139E+002
 6.142361090E-002 -5.399082601E-002 -1.500000013E-003 3.178077087E+002
 6.243055686E-002 -5.399082601E-002 -1.500000013E-003 3.177937012E+002
 6.343749911E-002 -5.399082601E-002 -1.500000013E-003 3.177321777E+002
 6.444444507E-002 -5.399082601E-002 -1.500000013E-003 3.175722046E+002
 6.545139104E-002 -5.399082601E-002 -1.500000013E-003 3.172798462E+002
 6.645833701E-002 -5.399082601E-002 -1.500000013E-003 3.169060364E+002
 6.746527553E-002 -5.399082601E-002 -1.500000013E-003 3.165768738E+002
 6.847222149E-002 -5.399082601E-002 -1.500000013E-003 3.163661499E+002
 6.947916746E-002 -5.399082601E-002 -1.500000013E-003 3.162582703E+002
 7.048611343E-002 -5.399082601E-002 -1.500000013E-003 3.162119446E+002
 7.149305195E-002 -5.399082601E-002 -1.500000013E-003 3.161966858E+002
 7.249999791E-002 -5.399082601E-002 -1.500000013E-003 3.161939697E+002
 -7.249999791E-002 -5.298165232E-002 -1.500000013E-003 3.046246338E+002
 -7.149305195E-002 -5.298165232E-002 -1.500000013E-003 3.046702576E+002
 -7.048611343E-002 -5.298165232E-002 -1.500000013E-003 3.048509521E+002
 -6.947916746E-002 -5.298165232E-002 -1.500000013E-003 3.053683167E+002
 -6.847222149E-002 -5.298165232E-002 -1.500000013E-003 3.064075623E+002
 -6.746527553E-002 -5.298165232E-002 -1.500000013E-003 3.076439819E+002
 -6.645833701E-002 -5.298165232E-002 -1.500000013E-003 3.084558411E+002
 -6.545139104E-002 -5.298165232E-002 -1.500000013E-003 3.087839661E+002
 -6.444444507E-002 -5.298165232E-002 -1.500000013E-003 3.088772583E+002
 -6.343749911E-002 -5.298165232E-002 -1.500000013E-003 3.090922241E+002
 -6.243055686E-002 -5.298165232E-002 -1.500000013E-003 3.093746033E+002
 -6.142361090E-002 -5.298165232E-002 -1.500000013E-003 3.103449707E+002
 -6.041666493E-002 -5.298165232E-002 -1.500000013E-003 3.124976196E+002
 -5.940972269E-002 -5.298165232E-002 -1.500000013E-003 3.149759827E+002
 -5.840277672E-002 -5.298165232E-002 -1.500000013E-003 3.163591919E+002
 -5.739583448E-002 -5.298165232E-002 -1.500000013E-003 3.168064880E+002
 -5.638888851E-002 -5.298165232E-002 -1.500000013E-003 3.172310181E+002
 -5.538194627E-002 -5.298165232E-002 -1.500000013E-003 3.175751953E+002
 -5.437500030E-002 -5.298165232E-002 -1.500000013E-003 3.187800903E+002
 -5.336805433E-002 -5.298165232E-002 -1.500000013E-003 3.210808411E+002
 -5.236111209E-002 -5.298165232E-002 -1.500000013E-003 3.229354858E+002
 -5.135416612E-002 -5.298165232E-002 -1.500000013E-003 3.236134644E+002
 -5.034722388E-002 -5.298165232E-002 -1.500000013E-003 3.242217407E+002
 -4.934027791E-002 -5.298165232E-002 -1.500000013E-003 3.247359009E+002
 -4.833333194E-002 -5.298165232E-002 -1.500000013E-003 3.263135376E+002
 -4.732638970E-002 -5.298165232E-002 -1.500000013E-003 3.283388367E+002
 -4.631944373E-002 -5.298165232E-002 -1.500000013E-003 3.292771606E+002
 -4.531250149E-002 -5.298165232E-002 -1.500000013E-003 3.301018982E+002
 -4.430555552E-002 -5.298165232E-002 -1.500000013E-003 3.307914429E+002
 -4.329860955E-002 -5.298165232E-002 -1.500000013E-003 3.324664307E+002
 -4.229166731E-002 -5.298165232E-002 -1.500000013E-003 3.337942505E+002
 -4.128472134E-002 -5.298165232E-002 -1.500000013E-003 3.349016724E+002
 -4.027777910E-002 -5.298165232E-002 -1.500000013E-003 3.355631409E+002
 -3.927083313E-002 -5.298165232E-002 -1.500000013E-003 3.369789734E+002
 -3.826388717E-002 -5.298165232E-002 -1.500000013E-003 3.378439636E+002
 -3.725694492E-002 -5.298165232E-002 -1.500000013E-003 3.390953979E+002
 -3.624999896E-002 -5.298165232E-002 -1.500000013E-003 3.401338196E+002
 -3.524305671E-002 -5.298165232E-002 -1.500000013E-003 3.409167480E+002
 -3.423611075E-002 -5.298165232E-002 -1.500000013E-003 3.423004456E+002
 -3.322916850E-002 -5.298165232E-002 -1.500000013E-003 3.431165466E+002
 -3.222222254E-002 -5.298165232E-002 -1.500000013E-003 3.445039673E+002
 -3.121527843E-002 -5.298165232E-002 -1.500000013E-003 3.450820923E+002
 -3.020833246E-002 -5.298165232E-002 -1.500000013E-003 3.464066467E+002
 -2.920138836E-002 -5.298165232E-002 -1.500000013E-003 3.468217468E+002
 -2.819444425E-002 -5.298165232E-002 -1.500000013E-003 3.479758606E+002
 -2.718750015E-002 -5.298165232E-002 -1.500000013E-003 3.490126648E+002
 -2.618055604E-002 -5.298165232E-002 -1.500000013E-003 3.498908081E+002
 -2.517361194E-002 -5.298165232E-002 -1.500000013E-003 3.506046448E+002
 -2.416666597E-002 -5.298165232E-002 -1.500000013E-003 3.511786194E+002
 -2.315972187E-002 -5.298165232E-002 -1.500000013E-003 3.519772644E+002
 -2.215277776E-002 -5.298165232E-002 -1.500000013E-003 3.525082397E+002
 -2.114583366E-002 -5.298165232E-002 -1.500000013E-003 3.532204895E+002
 -2.013888955E-002 -5.298165232E-002 -1.500000013E-003 3.537600403E+002
 -1.913194358E-002 -5.298165232E-002 -1.500000013E-003 3.542619019E+002
 -1.812499948E-002 -5.298165232E-002 -1.500000013E-003 3.547251282E+002
 -1.711805537E-002 -5.298165232E-002 -1.500000013E-003 3.553345642E+002
 -1.611111127E-002 -5.298165232E-002 -1.500000013E-003 3.556948547E+002
 -1.510416623E-002 -5.298165232E-002 -1.500000013E-003 3.560138245E+002
 -1.409722213E-002 -5.298165232E-002 -1.500000013E-003 3.562909241E+002
 -1.309027802E-002 -5.298165232E-002 -1.500000013E-003 3.565257568E+002
 -1.208333299E-002 -5.298165232E-002 -1.500000013E-003 3.567180481E+002
 -1.107638888E-002 -5.298165232E-002 -1.500000013E-003 3.569216614E+002
 -1.006944478E-002 -5.298165232E-002 -1.500000013E-003 3.570044556E+002
 -9.062499739E-003 -5.298165232E-002 -1.500000013E-003 3.570446777E+002
 -8.055555634E-003 -5.298165232E-002 -1.500000013E-003 3.570425720E+002
 -7.048611064E-003 -5.298165232E-002 -1.500000013E-003 3.569985657E+002
 -6.041666493E-003 -5.298165232E-002 -1.500000013E-003 3.569131165E+002
 -5.034722388E-003 -5.298165232E-002 -1.500000013E-003 3.567102661E+002
 -4.027777817E-003 -5.298165232E-002 -1.500000013E-003 3.565215759E+002
 -3.020833246E-003 -5.298165232E-002 -1.500000013E-003 3.562966309E+002
 -2.013888909E-003 -5.298165232E-002 -1.500000013E-003 3.560149536E+002
 -1.006944454E-003 -5.298165232E-002 -1.500000013E-003 3.555630188E+002
 0.000000000E+000 -5.298165232E-002 -1.500000013E-003 3.552088013E+002
 1.006944454E-003 -5.298165232E-002 -1.500000013E-003 3.547621460E+002
 2.013888909E-003 -5.298165232E-002 -1.500000013E-003 3.546522522E+002
 3.020833246E-003 -5.298165232E-002 -1.500000013E-003 3.540356750E+002
 4.027777817E-003 -5.298165232E-002 -1.500000013E-003 3.533394470E+002
 5.034722388E-003 -5.298165232E-002 -1.500000013E-003 3.530802612E+002
 6.041666493E-003 -5.298165232E-002 -1.500000013E-003 3.522372742E+002
 7.048611064E-003 -5.298165232E-002 -1.500000013E-003 3.518576660E+002
 8.055555634E-003 -5.298165232E-002 -1.500000013E-003 3.509613342E+002
 9.062499739E-003 -5.298165232E-002 -1.500000013E-003 3.503941956E+002
 1.006944478E-002 -5.298165232E-002 -1.500000013E-003 3.494663696E+002
 1.107638888E-002 -5.298165232E-002 -1.500000013E-003 3.489679871E+002
 1.208333299E-002 -5.298165232E-002 -1.500000013E-003 3.481920776E+002
 1.309027802E-002 -5.298165232E-002 -1.500000013E-003 3.473027344E+002
 1.409722213E-002 -5.298165232E-002 -1.500000013E-003 3.468238525E+002
 1.510416623E-002 -5.298165232E-002 -1.500000013E-003 3.457875977E+002
 1.611111127E-002 -5.298165232E-002 -1.500000013E-003 3.451393433E+002
 1.711805537E-002 -5.298165232E-002 -1.500000013E-003 3.444415894E+002
 1.812499948E-002 -5.298165232E-002 -1.500000013E-003 3.437671509E+002
 1.913194358E-002 -5.298165232E-002 -1.500000013E-003 3.424625549E+002
 2.013888955E-002 -5.298165232E-002 -1.500000013E-003 3.416574097E+002
 2.114583366E-002 -5.298165232E-002 -1.500000013E-003 3.410640259E+002
 2.215277776E-002 -5.298165232E-002 -1.500000013E-003 3.407335205E+002
 2.315972187E-002 -5.298165232E-002 -1.500000013E-003 3.396433411E+002
 2.416666597E-002 -5.298165232E-002 -1.500000013E-003 3.381426392E+002
 2.517361194E-002 -5.298165232E-002 -1.500000013E-003 3.373710632E+002
 2.618055604E-002 -5.298165232E-002 -1.500000013E-003 3.368926086E+002
 2.718750015E-002 -5.298165232E-002 -1.500000013E-003 3.367308044E+002
 2.819444425E-002 -5.298165232E-002 -1.500000013E-003 3.360777893E+002
 2.920138836E-002 -5.298165232E-002 -1.500000013E-003 3.345874634E+002
 3.020833246E-002 -5.298165232E-002 -1.500000013E-003 3.331105042E+002
 3.121527843E-002 -5.298165232E-002 -1.500000013E-003 3.324394226E+002
 3.222222254E-002 -5.298165232E-002 -1.500000013E-003 3.322604980E+002
 3.322916850E-002 -5.298165232E-002 -1.500000013E-003 3.320013428E+002
 3.423611075E-002 -5.298165232E-002 -1.500000013E-003 3.317125854E+002
 3.524305671E-002 -5.298165232E-002 -1.500000013E-003 3.308153076E+002
 3.624999896E-002 -5.298165232E-002 -1.500000013E-003 3.292333679E+002
 3.725694492E-002 -5.298165232E-002 -1.500000013E-003 3.278565979E+002
 3.826388717E-002 -5.298165232E-002 -1.500000013E-003 3.272092285E+002
 3.927083313E-002 -5.298165232E-002 -1.500000013E-003 3.270062256E+002
 4.027777910E-002 -5.298165232E-002 -1.500000013E-003 3.268515320E+002
 4.128472134E-002 -5.298165232E-002 -1.500000013E-003 3.267811584E+002
 4.229166731E-002 -5.298165232E-002 -1.500000013E-003 3.265020447E+002
 4.329860955E-002 -5.298165232E-002 -1.500000013E-003 3.257353821E+002